 DBCSR| CPU Multiplication driver                                           XSMM (U)
 DBCSR| Multrec recursion limit                                              512 (U)
 DBCSR| Multiplication stack size                                           1000 (D)
 DBCSR| Maximum elements for images                                    UNLIMITED (U)
 DBCSR| Multiplicative factor virtual images                                   1 (U)
 DBCSR| Use multiplication densification                                       T (D)
 DBCSR| Multiplication size stacks                                             3 (U)
 DBCSR| Use memory pool for CPU allocation                                     F (U)
 DBCSR| Number of 3D layers                                               SINGLE (U)
 DBCSR| Use MPI memory allocation                                              F (U)
 DBCSR| Use RMA algorithm                                                      F (U)
 DBCSR| Use Communication thread                                               T (U)
 DBCSR| Communication thread load                                             60 (D)
 DBCSR| MPI: My process id                                                     0
 DBCSR| MPI: Number of processes                                              14
 DBCSR| OMP: Current number of threads                                         8
 DBCSR| OMP: Max number of threads                                             8
 DBCSR| Split modifier for TAS multiplication algorithm                  1.0E+00 (U)


  **** **** ******  **  PROGRAM STARTED AT               2026-04-05 15:37:40.924
 ***** ** ***  *** **   PROGRAM STARTED ON        c513-133.stampede3.tacc.utexas
 **    ****   ******    PROGRAM STARTED BY                                  jq15
 ***** **    ** ** **   PROGRAM PROCESS ID                                122496
  **** **  *******  **  PROGRAM STARTED IN /scratch/10664/jq15/260403_DPA3_refin
                                           e/step2_cp2k/test

 CP2K| version string:                                       CP2K version 2025.1
 CP2K| source code revision number:                                  git:9635df4
 CP2K| cp2kflags: omp libint fftw3 libxc libgrpp pexsi elpa parallel scalapack c
 CP2K|            osma quip xsmm plumed2 spglib mkl libdftd4 sirius libvori libb
 CP2K|            bqb trexio libsmeagol
 CP2K| is freely available from                            https://www.cp2k.org/
 CP2K| Program compiled at                           Thu Jan 9 01:26:44 UTC 2025
 CP2K| Program compiled on                       build.stampede3.tacc.utexas.edu
 CP2K| Program compiled for                                      stampede3-intel
 CP2K| Data directory path    /admin/build/admin/rpms/stampede3/BUILD/cp2k-2025.
 CP2K| Input file name                                                    SSE.in
 
 GLOBAL| Force Environment number                                              1
 GLOBAL| Basis set file name            ../../z_share_files/basis_DZVP_MOLOPT_SR
 GLOBAL| Potential file name            ../../z_share_files/pseudopotential_GTH_
 GLOBAL| MM Potential file name                                     MM_POTENTIAL
 GLOBAL| Coordinate file name                                     last_frame.xyz
 GLOBAL| Method name                                                        CP2K
 GLOBAL| Project name                                                        SSE
 GLOBAL| Run type                                                   ENERGY_FORCE
 GLOBAL| FFT library                                                       FFTW3
 GLOBAL| Diagonalization library                                            ELPA
 GLOBAL| DGEMM library                                                      BLAS
 GLOBAL| Minimum number of eigenvectors for ELPA usage                        16
 GLOBAL| Orthonormality check for eigenvectors                          DISABLED
 GLOBAL| Matrix multiplication library                                     COSMA
 GLOBAL| All-to-all communication in single precision                          F
 GLOBAL| FFTs using library dependent lengths                                  F
 GLOBAL| Grid backend                                                       AUTO
 GLOBAL| Global print level                                               MEDIUM
 GLOBAL| MPI I/O enabled                                                       T
 GLOBAL| Total number of message passing processes                            14
 GLOBAL| Number of threads for this process                                    8
 GLOBAL| This output is from process                                           0
 GLOBAL| OpenMP stack size per thread (OMP_STACKSIZE)                    default
 GLOBAL| CPU model name                            Intel(R) Xeon(R) CPU Max 9480
 GLOBAL| CPUID                                                              1003
 GLOBAL| Compiled for CPUID                                                    0

 *** HINT in environment.F:928 :: The compiler target flags (generic) used ***
 *** to build this binary cannot exploit all extensions of this CPU model  ***
 *** (x86_avx512). Consider compiler target flags as part of FCFLAGS and   ***
 *** CFLAGS (ARCH file).                                                   ***


 MEMORY| system memory details [Kb]
 MEMORY|                        rank 0           min           max       average
 MEMORY| MemTotal            130953396     130953396     130953396     130953396
 MEMORY| MemFree             126138868     126138868     126138868     126138868
 MEMORY| Buffers                     0             0             0             0
 MEMORY| Cached                 363992        363992        363992        363992
 MEMORY| Slab                   757300        757300        757300        757300
 MEMORY| SReclaimable           168824        168824        168824        168824
 MEMORY| MemLikelyFree       126671684     126671684     126671684     126671684


 *** Fundamental physical constants (SI units) ***

 *** Literature: B. J. Mohr and B. N. Taylor,
 ***             CODATA recommended values of the fundamental physical
 ***             constants: 2006, Web Version 5.1
 ***             http://physics.nist.gov/constants

 Speed of light in vacuum [m/s]                             2.99792458000000E+08
 Magnetic constant or permeability of vacuum [N/A**2]       1.25663706143592E-06
 Electric constant or permittivity of vacuum [F/m]          8.85418781762039E-12
 Planck constant (h) [J*s]                                  6.62606896000000E-34
 Planck constant (h-bar) [J*s]                              1.05457162825177E-34
 Elementary charge [C]                                      1.60217648700000E-19
 Electron mass [kg]                                         9.10938215000000E-31
 Electron g factor [ ]                                     -2.00231930436220E+00
 Proton mass [kg]                                           1.67262163700000E-27
 Fine-structure constant                                    7.29735253760000E-03
 Rydberg constant [1/m]                                     1.09737315685270E+07
 Avogadro constant [1/mol]                                  6.02214179000000E+23
 Boltzmann constant [J/K]                                   1.38065040000000E-23
 Atomic mass unit [kg]                                      1.66053878200000E-27
 Bohr radius [m]                                            5.29177208590000E-11

 *** Conversion factors ***

 [u] -> [a.u.]                                              1.82288848426455E+03
 [Angstrom] -> [Bohr] = [a.u.]                              1.88972613288564E+00
 [a.u.] = [Bohr] -> [Angstrom]                              5.29177208590000E-01
 [a.u.] -> [s]                                              2.41888432650478E-17
 [a.u.] -> [fs]                                             2.41888432650478E-02
 [a.u.] -> [J]                                              4.35974393937059E-18
 [a.u.] -> [N]                                              8.23872205491840E-08
 [a.u.] -> [K]                                              3.15774647902944E+05
 [a.u.] -> [kJ/mol]                                         2.62549961709828E+03
 [a.u.] -> [kcal/mol]                                       6.27509468713739E+02
 [a.u.] -> [Pa]                                             2.94210107994716E+13
 [a.u.] -> [bar]                                            2.94210107994716E+08
 [a.u.] -> [atm]                                            2.90362800883016E+08
 [a.u.] -> [eV]                                             2.72113838565563E+01
 [a.u.] -> [Hz]                                             6.57968392072181E+15
 [a.u.] -> [1/cm] (wave numbers)                            2.19474631370540E+05
 [a.u./Bohr**2] -> [1/cm]                                   5.14048714338585E+03
 

 CELL_TOP| Volume [angstrom^3]:                                     12493.744316
 CELL_TOP| Vector a [angstrom    25.878     0.086     0.142   |a| =    25.878363
 CELL_TOP| Vector b [angstrom   -12.902    22.336    -0.093   |b| =    25.794943
 CELL_TOP| Vector c [angstrom     0.034     0.035    21.574   |c| =    21.573889
 CELL_TOP| Angle (b,c), alpha [degree]:                                90.171681
 CELL_TOP| Angle (a,c), beta  [degree]:                                89.592811
 CELL_TOP| Angle (a,b), gamma [degree]:                               119.822684
 CELL_TOP| Numerically orthorhombic:                                          NO
 CELL_TOP| Periodicity                                                       XYZ
 
 GENERATE|  Preliminary Number of Bonds generated:                             0
 GENERATE|  Achieved consistency in connectivity generation.

 CELL| Volume [angstrom^3]:                                         12493.744316
 CELL| Vector a [angstrom]:      25.878     0.086     0.142   |a| =    25.878363
 CELL| Vector b [angstrom]:     -12.902    22.336    -0.093   |b| =    25.794943
 CELL| Vector c [angstrom]:       0.034     0.035    21.574   |c| =    21.573889
 CELL| Angle (b,c), alpha [degree]:                                    90.171681
 CELL| Angle (a,c), beta  [degree]:                                    89.592811
 CELL| Angle (a,b), gamma [degree]:                                   119.822684
 CELL| Numerically orthorhombic:                                              NO
 CELL| Periodicity                                                           XYZ

 CELL_REF| Volume [angstrom^3]:                                     12493.744316
 CELL_REF| Vector a [angstrom    25.878     0.086     0.142   |a| =    25.878363
 CELL_REF| Vector b [angstrom   -12.902    22.336    -0.093   |b| =    25.794943
 CELL_REF| Vector c [angstrom     0.034     0.035    21.574   |c| =    21.573889
 CELL_REF| Angle (b,c), alpha [degree]:                                90.171681
 CELL_REF| Angle (a,c), beta  [degree]:                                89.592811
 CELL_REF| Angle (a,b), gamma [degree]:                               119.822684
 CELL_REF| Numerically orthorhombic:                                          NO
 CELL_REF| Periodicity                                                       XYZ

 *******************************************************************************
 *******************************************************************************
 **                                                                           **
 **     #####                         ##              ##                      **
 **    ##   ##            ##          ##              ##                      **
 **   ##     ##                       ##            ######                    **
 **   ##     ##  ##   ##  ##   #####  ##  ##   ####   ##    #####    #####    **
 **   ##     ##  ##   ##  ##  ##      ## ##   ##      ##   ##   ##  ##   ##   **
 **   ##  ## ##  ##   ##  ##  ##      ####     ###    ##   ######   ######    **
 **    ##  ###   ##   ##  ##  ##      ## ##      ##   ##   ##       ##        **
 **     #######   #####   ##   #####  ##  ##  ####    ##    #####   ##        **
 **           ##                                                    ##        **
 **                                                                           **
 **                                                ... make the atoms dance   **
 **                                                                           **
 **            Copyright (C) by CP2K developers group (2000-2025)             **
 **                      J. Chem. Phys. 152, 194103 (2020)                    **
 **                                                                           **
 *******************************************************************************

 DFT| Spin restricted Kohn-Sham (RKS) calculation                            RKS
 DFT| Multiplicity                                                             1
 DFT| Number of spin states                                                    1
 DFT| Charge                                                                   0
 DFT| Self-interaction correction (SIC)                                       NO
 DFT| Cutoffs: density                                              1.000000E-10
 DFT|          gradient                                             1.000000E-10
 DFT|          tau                                                  1.000000E-10
 DFT|          cutoff_smoothing_range                               0.000000E+00
 DFT| XC density smoothing                                                  NONE
 DFT| XC derivatives                                                          PW

 FUNCTIONAL| PBE:
 FUNCTIONAL| J.P.Perdew, K.Burke, M.Ernzerhof, Phys. Rev. Letter, vol. 77, n 18,
 FUNCTIONAL|  pp. 3865-3868, (1996) {spin unpolarized}                          

 vdW POTENTIAL|                                                   Pair Potential
 vdW POTENTIAL|          DFT-D3 (Version 3.1)
 vdW POTENTIAL|          Potential Form: S. Grimme et al, JCP 132: 154104 (2010)
 vdW POTENTIAL|          Zero Damping
 vdW POTENTIAL|          Cutoff Radius [Bohr]:                             30.24
 vdW POTENTIAL|          s6 Scaling Factor:                               1.0000
 vdW POTENTIAL|          sr6 Scaling Factor:                              1.2170
 vdW POTENTIAL|          s8 Scaling Factor:                               0.7220
 vdW POTENTIAL|          Cutoff for CN calculation:                   0.1000E-05

 QS| Method:                                                                 GPW
 QS| Density plane wave grid type                        NON-SPHERICAL FULLSPACE
 QS| Number of grid levels:                                                    4
 QS| Density cutoff [a.u.]:                                                300.0
 QS| Multi grid cutoff [a.u.]: 1) grid level                               300.0
 QS|                           2) grid level                               100.0
 QS|                           3) grid level                                33.3
 QS|                           4) grid level                                11.1
 QS| Grid level progression factor:                                          3.0
 QS| Relative density cutoff [a.u.]:                                        30.0
 QS| Interaction thresholds: eps_pgf_orb:                                1.0E-06
 QS|                         eps_filter_matrix:                          0.0E+00
 QS|                         eps_core_charge:                            1.0E-14
 QS|                         eps_rho_gspace:                             1.0E-12
 QS|                         eps_rho_rspace:                             1.0E-12
 QS|                         eps_gvg_rspace:                             1.0E-06
 QS|                         eps_ppl:                                    1.0E-02
 QS|                         eps_ppnl:                                   1.0E-08


 ATOMIC KIND INFORMATION

  1. Atomic kind: Li                                    Number of atoms:      54

     Orbital Basis Set                                     DZVP-MOLOPT-SR-GTH-q3

       Number of orbital shell sets:                                           1
       Number of orbital shells:                                               4
       Number of primitive Cartesian functions:                                5
       Number of Cartesian basis functions:                                    6
       Number of spherical basis functions:                                    6
       Norm type:                                                              2

       Normalised Cartesian orbitals:

                        Set   Shell   Orbital            Exponent    Coefficient

                          1       1    2s                7.133128       0.845417
                                                         1.999997       0.491024
                                                         0.612031       0.147779
                                                         0.084367       0.023020
                                                         0.032613       0.006029

                          1       2    3s                7.133128       0.356560
                                                         1.999997       0.274758
                                                         0.612031       0.123518
                                                         0.084367      -0.073250
                                                         0.032613      -0.022874

                          1       3    4s                7.133128      -0.506239
                                                         1.999997      -0.114387
                                                         0.612031      -0.015464
                                                         0.084367      -0.188013
                                                         0.032613       0.089984

                          1       4    3px               7.133128      -0.353696
                                                         1.999997      -0.012401
                                                         0.612031      -0.242249
                                                         0.084367      -0.056703
                                                         0.032613       0.000856
                          1       4    3py               7.133128      -0.353696
                                                         1.999997      -0.012401
                                                         0.612031      -0.242249
                                                         0.084367      -0.056703
                                                         0.032613       0.000856
                          1       4    3pz               7.133128      -0.353696
                                                         1.999997      -0.012401
                                                         0.612031      -0.242249
                                                         0.084367      -0.056703
                                                         0.032613       0.000856

       Atomic covalent radius [Angstrom]:                                  1.230

       Atomic van der Waals radius [Angstrom]:                             1.820

     GTH Potential information for                                    GTH-PBE-q3

       Description:                       Goedecker-Teter-Hutter pseudopotential
                                           Goedecker et al., PRB 54, 1703 (1996)
                                          Hartwigsen et al., PRB 58, 3641 (1998)
                                                      Krack, TCA 114, 145 (2005)

       Gaussian exponent of the core charge distribution:               3.128959
       Electronic configuration (s p d ...):                       3   0   0   0

       Parameters of the local part of the GTH pseudopotential:

                          rloc        C1          C2          C3          C4
                        0.399747  -14.085696    9.625278   -1.783974    0.085366

  2. Atomic kind: Ti                                    Number of atoms:     108

     Orbital Basis Set                                    DZVP-MOLOPT-SR-GTH-q12

       Number of orbital shell sets:                                           1
       Number of orbital shells:                                               8
       Number of primitive Cartesian functions:                                6
       Number of Cartesian basis functions:                                   31
       Number of spherical basis functions:                                   26
       Norm type:                                                              2

       Normalised Cartesian orbitals:

                        Set   Shell   Orbital            Exponent    Coefficient

                          1       1    2s                7.884570       0.015554
                                                         3.894698       0.963603
                                                         1.513589      -0.631435
                                                         0.596768      -0.343022
                                                         0.222222      -0.006534
                                                         0.077078       0.007652

                          1       2    3s                7.884570      -0.009340
                                                         3.894698       0.212624
                                                         1.513589      -0.258368
                                                         0.596768      -0.226206
                                                         0.222222       0.039438
                                                         0.077078       0.107179

                          1       3    4s                7.884570       0.276563
                                                         3.894698       0.105452
                                                         1.513589       0.085149
                                                         0.596768       0.882541
                                                         0.222222      -0.696223
                                                         0.077078       0.156638

                          1       4    3px               7.884570      -2.034794
                                                         3.894698       0.782008
                                                         1.513589       1.253903
                                                         0.596768       0.347823
                                                         0.222222       0.016778
                                                         0.077078      -0.000433
                          1       4    3py               7.884570      -2.034794
                                                         3.894698       0.782008
                                                         1.513589       1.253903
                                                         0.596768       0.347823
                                                         0.222222       0.016778
                                                         0.077078      -0.000433
                          1       4    3pz               7.884570      -2.034794
                                                         3.894698       0.782008
                                                         1.513589       1.253903
                                                         0.596768       0.347823
                                                         0.222222       0.016778
                                                         0.077078      -0.000433

                          1       5    4px               7.884570       0.376572
                                                         3.894698      -0.182875
                                                         1.513589      -0.474776
                                                         0.596768      -0.081757
                                                         0.222222       0.064432
                                                         0.077078       0.047279
                          1       5    4py               7.884570       0.376572
                                                         3.894698      -0.182875
                                                         1.513589      -0.474776
                                                         0.596768      -0.081757
                                                         0.222222       0.064432
                                                         0.077078       0.047279
                          1       5    4pz               7.884570       0.376572
                                                         3.894698      -0.182875
                                                         1.513589      -0.474776
                                                         0.596768      -0.081757
                                                         0.222222       0.064432
                                                         0.077078       0.047279

                          1       6    4dx2              7.884570       3.047350
                                                         3.894698       3.289529
                                                         1.513589       1.060616
                                                         0.596768       0.249930
                                                         0.222222       0.038806
                                                         0.077078       0.002319
                          1       6    4dxy              7.884570       5.278165
                                                         3.894698       5.697631
                                                         1.513589       1.837041
                                                         0.596768       0.432892
                                                         0.222222       0.067214
                                                         0.077078       0.004017
                          1       6    4dxz              7.884570       5.278165
                                                         3.894698       5.697631
                                                         1.513589       1.837041
                                                         0.596768       0.432892
                                                         0.222222       0.067214
                                                         0.077078       0.004017
                          1       6    4dy2              7.884570       3.047350
                                                         3.894698       3.289529
                                                         1.513589       1.060616
                                                         0.596768       0.249930
                                                         0.222222       0.038806
                                                         0.077078       0.002319
                          1       6    4dyz              7.884570       5.278165
                                                         3.894698       5.697631
                                                         1.513589       1.837041
                                                         0.596768       0.432892
                                                         0.222222       0.067214
                                                         0.077078       0.004017
                          1       6    4dz2              7.884570       3.047350
                                                         3.894698       3.289529
                                                         1.513589       1.060616
                                                         0.596768       0.249930
                                                         0.222222       0.038806
                                                         0.077078       0.002319

                          1       7    5dx2              7.884570      -2.119015
                                                         3.894698      -1.237751
                                                         1.513589      -0.746777
                                                         0.596768      -0.071514
                                                         0.222222       0.004086
                                                         0.077078       0.017595
                          1       7    5dxy              7.884570      -3.670241
                                                         3.894698      -2.143848
                                                         1.513589      -1.293455
                                                         0.596768      -0.123865
                                                         0.222222       0.007077
                                                         0.077078       0.030475
                          1       7    5dxz              7.884570      -3.670241
                                                         3.894698      -2.143848
                                                         1.513589      -1.293455
                                                         0.596768      -0.123865
                                                         0.222222       0.007077
                                                         0.077078       0.030475
                          1       7    5dy2              7.884570      -2.119015
                                                         3.894698      -1.237751
                                                         1.513589      -0.746777
                                                         0.596768      -0.071514
                                                         0.222222       0.004086
                                                         0.077078       0.017595
                          1       7    5dyz              7.884570      -3.670241
                                                         3.894698      -2.143848
                                                         1.513589      -1.293455
                                                         0.596768      -0.123865
                                                         0.222222       0.007077
                                                         0.077078       0.030475
                          1       7    5dz2              7.884570      -2.119015
                                                         3.894698      -1.237751
                                                         1.513589      -0.746777
                                                         0.596768      -0.071514
                                                         0.222222       0.004086
                                                         0.077078       0.017595

                          1       8    5fx3              7.884570      -0.342058
                                                         3.894698       0.375798
                                                         1.513589      -0.706469
                                                         0.596768      -0.229994
                                                         0.222222      -0.012723
                                                         0.077078       0.003932
                          1       8    5fx2y             7.884570      -0.764866
                                                         3.894698       0.840310
                                                         1.513589      -1.579712
                                                         0.596768      -0.514282
                                                         0.222222      -0.028450
                                                         0.077078       0.008792
                          1       8    5fx2z             7.884570      -0.764866
                                                         3.894698       0.840310
                                                         1.513589      -1.579712
                                                         0.596768      -0.514282
                                                         0.222222      -0.028450
                                                         0.077078       0.008792
                          1       8    5fxy2             7.884570      -0.764866
                                                         3.894698       0.840310
                                                         1.513589      -1.579712
                                                         0.596768      -0.514282
                                                         0.222222      -0.028450
                                                         0.077078       0.008792
                          1       8    5fxyz             7.884570      -1.324787
                                                         3.894698       1.455460
                                                         1.513589      -2.736142
                                                         0.596768      -0.890763
                                                         0.222222      -0.049276
                                                         0.077078       0.015229
                          1       8    5fxz2             7.884570      -0.764866
                                                         3.894698       0.840310
                                                         1.513589      -1.579712
                                                         0.596768      -0.514282
                                                         0.222222      -0.028450
                                                         0.077078       0.008792
                          1       8    5fy3              7.884570      -0.342058
                                                         3.894698       0.375798
                                                         1.513589      -0.706469
                                                         0.596768      -0.229994
                                                         0.222222      -0.012723
                                                         0.077078       0.003932
                          1       8    5fy2z             7.884570      -0.764866
                                                         3.894698       0.840310
                                                         1.513589      -1.579712
                                                         0.596768      -0.514282
                                                         0.222222      -0.028450
                                                         0.077078       0.008792
                          1       8    5fyz2             7.884570      -0.764866
                                                         3.894698       0.840310
                                                         1.513589      -1.579712
                                                         0.596768      -0.514282
                                                         0.222222      -0.028450
                                                         0.077078       0.008792
                          1       8    5fz3              7.884570      -0.342058
                                                         3.894698       0.375798
                                                         1.513589      -0.706469
                                                         0.596768      -0.229994
                                                         0.222222      -0.012723
                                                         0.077078       0.003932

       Atomic covalent radius [Angstrom]:                                  1.320

       Atomic van der Waals radius [Angstrom]:                             1.760

     GTH Potential information for                                   GTH-PBE-q12

       Description:                       Goedecker-Teter-Hutter pseudopotential
                                           Goedecker et al., PRB 54, 1703 (1996)
                                          Hartwigsen et al., PRB 58, 3641 (1998)
                                                      Krack, TCA 114, 145 (2005)

       Gaussian exponent of the core charge distribution:               3.444942
       Electronic configuration (s p d ...):                       4   6   2   0

       Parameters of the local part of the GTH pseudopotential:

                          rloc        C1          C2          C3          C4
                        0.380973    8.686598   -0.687741

       Parameters of the non-local part of the GTH pseudopotential:

                   l      r(l)      h(i,j,l)

                   0    0.325374    2.475797    3.692975
                                    3.692975   -4.479294
                   1    0.250886   -4.620112    8.870876
                                    8.870876  -10.495957
                   2    0.243514   -9.410831

  3. Atomic kind: P                                     Number of atoms:     162

     Orbital Basis Set                                     DZVP-MOLOPT-SR-GTH-q5

       Number of orbital shell sets:                                           1
       Number of orbital shells:                                               5
       Number of primitive Cartesian functions:                                4
       Number of Cartesian basis functions:                                   14
       Number of spherical basis functions:                                   13
       Norm type:                                                              2

       Normalised Cartesian orbitals:

                        Set   Shell   Orbital            Exponent    Coefficient

                          1       1    2s                1.631862       0.315960
                                                         0.708433      -0.011644
                                                         0.284968      -0.248059
                                                         0.098012      -0.033509

                          1       2    3s                1.631862       0.419007
                                                         0.708433       0.005279
                                                         0.284968      -0.282133
                                                         0.098012       0.197813

                          1       3    3px               1.631862       0.226606
                                                         0.708433      -0.227650
                                                         0.284968      -0.167400
                                                         0.098012      -0.028303
                          1       3    3py               1.631862       0.226606
                                                         0.708433      -0.227650
                                                         0.284968      -0.167400
                                                         0.098012      -0.028303
                          1       3    3pz               1.631862       0.226606
                                                         0.708433      -0.227650
                                                         0.284968      -0.167400
                                                         0.098012      -0.028303

                          1       4    4px               1.631862       0.384208
                                                         0.708433      -0.392252
                                                         0.284968      -0.044799
                                                         0.098012       0.090234
                          1       4    4py               1.631862       0.384208
                                                         0.708433      -0.392252
                                                         0.284968      -0.044799
                                                         0.098012       0.090234
                          1       4    4pz               1.631862       0.384208
                                                         0.708433      -0.392252
                                                         0.284968      -0.044799
                                                         0.098012       0.090234

                          1       5    4dx2              1.631862       0.468049
                                                         0.708433       0.312960
                                                         0.284968       0.088381
                                                         0.098012       0.007956
                          1       5    4dxy              1.631862       0.810685
                                                         0.708433       0.542063
                                                         0.284968       0.153081
                                                         0.098012       0.013780
                          1       5    4dxz              1.631862       0.810685
                                                         0.708433       0.542063
                                                         0.284968       0.153081
                                                         0.098012       0.013780
                          1       5    4dy2              1.631862       0.468049
                                                         0.708433       0.312960
                                                         0.284968       0.088381
                                                         0.098012       0.007956
                          1       5    4dyz              1.631862       0.810685
                                                         0.708433       0.542063
                                                         0.284968       0.153081
                                                         0.098012       0.013780
                          1       5    4dz2              1.631862       0.468049
                                                         0.708433       0.312960
                                                         0.284968       0.088381
                                                         0.098012       0.007956

       Atomic covalent radius [Angstrom]:                                  1.060

       Atomic van der Waals radius [Angstrom]:                             1.800

     GTH Potential information for                                    GTH-PBE-q5

       Description:                       Goedecker-Teter-Hutter pseudopotential
                                           Goedecker et al., PRB 54, 1703 (1996)
                                          Hartwigsen et al., PRB 58, 3641 (1998)
                                                      Krack, TCA 114, 145 (2005)

       Gaussian exponent of the core charge distribution:               2.702572
       Electronic configuration (s p d ...):                       2   3   0   0

       Parameters of the local part of the GTH pseudopotential:

                          rloc        C1          C2          C3          C4
                        0.430127   -5.862875

       Parameters of the non-local part of the GTH pseudopotential:

                   l      r(l)      h(i,j,l)

                   0    0.396379   11.009068   -3.470357
                                   -3.470357    4.480230
                   1    0.448294    3.056058

  4. Atomic kind: O                                     Number of atoms:     648

     Orbital Basis Set                                     DZVP-MOLOPT-SR-GTH-q6

       Number of orbital shell sets:                                           1
       Number of orbital shells:                                               5
       Number of primitive Cartesian functions:                                5
       Number of Cartesian basis functions:                                   14
       Number of spherical basis functions:                                   13
       Norm type:                                                              2

       Normalised Cartesian orbitals:

                        Set   Shell   Orbital            Exponent    Coefficient

                          1       1    2s               10.389228       0.396646
                                                         3.849621       0.208811
                                                         1.388401      -0.301641
                                                         0.496955      -0.274061
                                                         0.162492      -0.033677

                          1       2    3s               10.389228       0.303673
                                                         3.849621       0.240943
                                                         1.388401      -0.313066
                                                         0.496955      -0.043055
                                                         0.162492       0.213991

                          1       3    3px              10.389228      -1.530415
                                                         3.849621      -1.371928
                                                         1.388401      -0.761951
                                                         0.496955      -0.253695
                                                         0.162492      -0.035541
                          1       3    3py              10.389228      -1.530415
                                                         3.849621      -1.371928
                                                         1.388401      -0.761951
                                                         0.496955      -0.253695
                                                         0.162492      -0.035541
                          1       3    3pz              10.389228      -1.530415
                                                         3.849621      -1.371928
                                                         1.388401      -0.761951
                                                         0.496955      -0.253695
                                                         0.162492      -0.035541

                          1       4    4px              10.389228      -0.565392
                                                         3.849621      -0.038231
                                                         1.388401      -0.382373
                                                         0.496955       0.179070
                                                         0.162492       0.122714
                          1       4    4py              10.389228      -0.565392
                                                         3.849621      -0.038231
                                                         1.388401      -0.382373
                                                         0.496955       0.179070
                                                         0.162492       0.122714
                          1       4    4pz              10.389228      -0.565392
                                                         3.849621      -0.038231
                                                         1.388401      -0.382373
                                                         0.496955       0.179070
                                                         0.162492       0.122714

                          1       5    4dx2             10.389228       1.867377
                                                         3.849621       0.670994
                                                         1.388401       1.353441
                                                         0.496955       0.273538
                                                         0.162492       0.006620
                          1       5    4dxy             10.389228       3.234392
                                                         3.849621       1.162195
                                                         1.388401       2.344229
                                                         0.496955       0.473781
                                                         0.162492       0.011466
                          1       5    4dxz             10.389228       3.234392
                                                         3.849621       1.162195
                                                         1.388401       2.344229
                                                         0.496955       0.473781
                                                         0.162492       0.011466
                          1       5    4dy2             10.389228       1.867377
                                                         3.849621       0.670994
                                                         1.388401       1.353441
                                                         0.496955       0.273538
                                                         0.162492       0.006620
                          1       5    4dyz             10.389228       3.234392
                                                         3.849621       1.162195
                                                         1.388401       2.344229
                                                         0.496955       0.473781
                                                         0.162492       0.011466
                          1       5    4dz2             10.389228       1.867377
                                                         3.849621       0.670994
                                                         1.388401       1.353441
                                                         0.496955       0.273538
                                                         0.162492       0.006620

       Atomic covalent radius [Angstrom]:                                  0.730

       Atomic van der Waals radius [Angstrom]:                             1.520

     GTH Potential information for                                    GTH-PBE-q6

       Description:                       Goedecker-Teter-Hutter pseudopotential
                                           Goedecker et al., PRB 54, 1703 (1996)
                                          Hartwigsen et al., PRB 58, 3641 (1998)
                                                      Krack, TCA 114, 145 (2005)

       Gaussian exponent of the core charge distribution:               8.366479
       Electronic configuration (s p d ...):                       2   4   0   0

       Parameters of the local part of the GTH pseudopotential:

                          rloc        C1          C2          C3          C4
                        0.244463  -16.675482    2.489086

       Parameters of the non-local part of the GTH pseudopotential:

                   l      r(l)      h(i,j,l)

                   0    0.220971   18.334469


 MOLECULE KIND INFORMATION


 All atoms are their own molecule, skipping detailed information


 TOTAL NUMBERS AND MAXIMUM NUMBERS

  Total number of            - Atomic kinds:                                   4
                             - Atoms:                                        972
                             - Shell sets:                                   972
                             - Shells:                                      5130
                             - Primitive Cartesian functions:               4806
                             - Cartesian basis functions:                  15012
                             - Spherical basis functions:                  13662

  Maximum angular momentum of- Orbital basis functions:                        3
                             - Local part of the GTH pseudopotential:          6
                             - Non-local part of the GTH pseudopotential:      3


 MODULE QUICKSTEP: ATOMIC COORDINATES IN ANGSTROM

   Atom Kind Element         X             Y             Z       Z(eff)     Mass
      1    1 Li    3      4.088325     12.693568      3.445966   3.0000   6.9410
      2    1 Li    3     17.262065     -4.956088      7.224335   3.0000   6.9410
      3    1 Li    3     -0.012348      4.748224     14.506032   3.0000   6.9410
      4    1 Li    3     -9.507650      8.822883     18.186367   3.0000   6.9410
      5    1 Li    3      0.046611      0.112955     10.746633   3.0000   6.9410
      6    1 Li    3     10.060623      0.673317     21.307234   3.0000   6.9410
      7    2 Ti   22     -4.330810     -2.625637     17.351626  12.0000  47.8670
      8    2 Ti   22     -4.160883     -2.414285      6.538267  12.0000  47.8670
      9    2 Ti   22     -4.456900     -2.357026     11.163378  12.0000  47.8670
     10    2 Ti   22     -4.284647     -2.570914      0.657593  12.0000  47.8670
     11    2 Ti   22      8.412115     14.902300      3.192699  12.0000  47.8670
     12    2 Ti   22     -4.357728     -7.203993     13.754559  12.0000  47.8670
     13    2 Ti   22     21.445677     -7.153966     18.575908  12.0000  47.8670
     14    2 Ti   22      8.591004     14.836623      7.681081  12.0000  47.8670
     15    2 Ti   22      0.060494     -4.916375     10.225861  12.0000  47.8670
     16    2 Ti   22      0.029042     -4.998660     20.954069  12.0000  47.8670
     17    2 Ti   22     -0.103605     -5.154434      4.079265  12.0000  47.8670
     18    2 Ti   22     -0.211773     -5.063185     14.886811  12.0000  47.8670
     19    3 P    15     -3.066323     -5.398095      5.446268   5.0000  30.9738
     20    3 P    15     -1.216395     -2.991727      1.768636   5.0000  30.9738
     21    3 P    15     -1.403965     -7.087936      1.781292   5.0000  30.9738
     22    3 P    15      2.366885     -5.071560      1.637666   5.0000  30.9738
     23    3 P    15     -7.327086     -2.140282      5.137722   5.0000  30.9738
     24    3 P    15      1.881241     -7.438096      5.414581   5.0000  30.9738
     25    3 P    15      1.211900     -2.980719     12.601425   5.0000  30.9738
     26    3 P    15     -5.594777     -0.227432      8.778057   5.0000  30.9738
     27    3 P    15     -5.515995     -4.782701      8.872150   5.0000  30.9738
     28    3 P    15     -1.925295     -2.346254      9.059663   5.0000  30.9738
     29    3 P    15      1.198289     -7.112764     12.607811   5.0000  30.9738
     30    3 P    15     -2.402249     -4.634843     12.614311   5.0000  30.9738
     31    3 P    15     -3.006848     -0.487518     19.930421   5.0000  30.9738
     32    3 P    15     20.266833     -5.175088     16.171107   5.0000  30.9738
     33    3 P    15     -1.165455     -2.146058     16.245858   5.0000  30.9738
     34    3 P    15     -1.923697     -7.406637     16.288127   5.0000  30.9738
     35    3 P    15     -3.098815     -4.655599     19.621538   5.0000  30.9738
     36    3 P    15     -6.739744     -2.543679     19.682617   5.0000  30.9738
     37    4 O     8     -6.087776     -3.006171     18.456028   6.0000  15.9994
     38    4 O     8     -5.830692     -2.045202      5.185231   6.0000  15.9994
     39    4 O     8     -3.624740     -3.873481      5.468344   6.0000  15.9994
     40    4 O     8     -3.475068     -1.115547      5.288776   6.0000  15.9994
     41    4 O     8      0.911004     -3.697406      5.286706   6.0000  15.9994
     42    4 O     8     -1.533342     -5.204968      5.491937   6.0000  15.9994
     43    4 O     8      0.856162     -6.182903      5.481521   6.0000  15.9994
     44    4 O     8     -2.783231     -2.652223      1.858962   6.0000  15.9994
     45    4 O     8     -4.755190     -0.995487      2.073863   6.0000  15.9994
     46    4 O     8     -5.135360     -3.988816      1.805916   6.0000  15.9994
     47    4 O     8     -2.713527     -2.216472     10.303561   6.0000  15.9994
     48    4 O     8     -3.715082     -1.199348     18.671104   6.0000  15.9994
     49    4 O     8     -3.421961     -3.991866     18.242961   6.0000  15.9994
     50    4 O     8     -5.822635     -2.368257     20.925611   6.0000  15.9994
     51    4 O     8     -3.165886     -1.178769     21.318748   6.0000  15.9994
     52    4 O     8     -3.597428     -3.785452     20.801738   6.0000  15.9994
     53    4 O     8     -5.026408     -3.836921     10.101081   6.0000  15.9994
     54    4 O     8     -2.989098     -6.945988      1.599645   6.0000  15.9994
     55    4 O     8     -5.177237     -0.929948     10.150470   6.0000  15.9994
     56    4 O     8     -2.622063     -2.313913      7.647032   6.0000  15.9994
     57    4 O     8     -5.198996     -3.862858      7.656679   6.0000  15.9994
     58    4 O     8     -5.031307     -1.209805      7.653362   6.0000  15.9994
     59    4 O     8      3.410635     -6.343084      1.805231   6.0000  15.9994
     60    4 O     8     -0.468709     -1.634941      1.929590   6.0000  15.9994
     61    4 O     8     -1.562706     -0.246155      4.138480   6.0000  15.9994
     62    4 O     8      2.783563     -6.879721     12.868595   6.0000  15.9994
     63    4 O     8      0.535789     -1.482913     12.634418   6.0000  15.9994
     64    4 O     8     -3.399288     -6.026223     12.611946   6.0000  15.9994
     65    4 O     8     -3.732609     -1.049584     12.771278   6.0000  15.9994
     66    4 O     8     -6.036894     -2.456233     12.311565   6.0000  15.9994
     67    4 O     8     -3.502856     -3.501188     12.591142   6.0000  15.9994
     68    4 O     8     -7.104921     -0.049863      8.786838   6.0000  15.9994
     69    4 O     8     -4.922810     -6.196468      9.237265   6.0000  15.9994
     70    4 O     8     -0.887396     -1.153879      8.932872   6.0000  15.9994
     71    4 O     8     -2.701700     -7.377050     17.582097   6.0000  15.9994
     72    4 O     8     -3.425731     -6.088615      4.077569   6.0000  15.9994
     73    4 O     8     17.803461     -1.598566      4.047534   6.0000  15.9994
     74    4 O     8      2.746738     -7.373303      6.736756   6.0000  15.9994
     75    4 O     8     -3.566283     -6.202926      6.641755   6.0000  15.9994
     76    4 O     8      0.171743     -1.655702      6.477191   6.0000  15.9994
     77    4 O     8     -0.856693     -1.405325     17.509180   6.0000  15.9994
     78    4 O     8      1.372770     -4.746013      9.032527   6.0000  15.9994
     79    4 O     8      3.681916     -6.060839     17.301430   6.0000  15.9994
     80    4 O     8     -7.132784     -0.685046     14.900832   6.0000  15.9994
     81    4 O     8     -0.754585     -1.224903     15.086532   6.0000  15.9994
     82    4 O     8     20.577919     -5.680853     14.791380   6.0000  15.9994
     83    4 O     8     -1.161693     -3.687097      9.231371   6.0000  15.9994
     84    4 O     8     -1.025483     -6.362178      9.180508   6.0000  15.9994
     85    4 O     8     -1.446284     -4.675629     11.543946   6.0000  15.9994
     86    4 O     8     -1.581740     -4.856361     19.690104   6.0000  15.9994
     87    4 O     8      0.339729     -6.489656     19.380091   6.0000  15.9994
     88    4 O     8      1.280563     -3.951872     20.018215   6.0000  15.9994
     89    4 O     8     -3.883443     -6.029534     19.719244   6.0000  15.9994
     90    4 O     8     -1.433188     -0.317034     19.718665   6.0000  15.9994
     91    4 O     8     -7.441112     -1.106245     19.463987   6.0000  15.9994
     92    4 O     8      1.573065     -5.205447     16.002905   6.0000  15.9994
     93    4 O     8     -0.376327     -3.472677     16.222671   6.0000  15.9994
     94    4 O     8     -0.868815     -6.079678     16.437672   6.0000  15.9994
     95    4 O     8      1.420032     -5.140634      2.917036   6.0000  15.9994
     96    4 O     8      0.764950     -3.466965     11.223269   6.0000  15.9994
     97    4 O     8      0.868091     -6.310600     11.336657   6.0000  15.9994
     98    4 O     8     -1.694613     -4.502385     14.061235   6.0000  15.9994
     99    4 O     8      0.866962     -3.771107     13.813608   6.0000  15.9994
    100    4 O     8      0.407409     -6.457941     13.821628   6.0000  15.9994
    101    4 O     8     -0.759458     -6.669747      3.082395   6.0000  15.9994
    102    4 O     8     -2.694791     -2.146057     16.081416   6.0000  15.9994
    103    4 O     8     -0.930149     -3.696391      3.219403   6.0000  15.9994
    104    4 O     8      1.621602     -5.285408      0.386432   6.0000  15.9994
    105    4 O     8     -1.007083     -6.192113      0.484642   6.0000  15.9994
    106    4 O     8     -0.707071     -3.627976      0.398476   6.0000  15.9994
    107    4 O     8     -5.201618     -1.028965     16.568674   6.0000  15.9994
    108    4 O     8     -5.156011     -3.751512     16.112254   6.0000  15.9994
    109    1 Li    3      8.943488     -0.451232     10.985666   3.0000   6.9410
    110    1 Li    3     12.057595     -7.242424     10.367901   3.0000   6.9410
    111    1 Li    3     -4.037857      7.394564     11.116159   3.0000   6.9410
    112    1 Li    3      5.508732      2.829945      6.899528   3.0000   6.9410
    113    1 Li    3    -11.980298      7.252881     21.035090   3.0000   6.9410
    114    1 Li    3     16.749925      0.569985     10.705559   3.0000   6.9410
    115    2 Ti   22     -8.434235      4.869484     17.500377  12.0000  47.8670
    116    2 Ti   22     -8.693790      4.846527      6.438226  12.0000  47.8670
    117    2 Ti   22     -8.645553      4.840401     11.191720  12.0000  47.8670
    118    2 Ti   22     -8.829390      5.012514      0.428516  12.0000  47.8670
    119    2 Ti   22     17.142074      0.069665      3.151680  12.0000  47.8670
    120    2 Ti   22     17.199152      0.073512     13.877187  12.0000  47.8670
    121    2 Ti   22     17.171593     -0.172373     18.579627  12.0000  47.8670
    122    2 Ti   22     -8.572928      0.157280      7.433057  12.0000  47.8670
    123    2 Ti   22     -4.414119      2.454123     10.183627  12.0000  47.8670
    124    2 Ti   22     -4.239858      2.272228     21.006990  12.0000  47.8670
    125    2 Ti   22     -4.205417      2.608348      3.916154  12.0000  47.8670
    126    2 Ti   22     -4.230234      2.430750     14.755285  12.0000  47.8670
    127    3 P    15     -7.137639      2.131585      5.272339   5.0000  30.9738
    128    3 P    15     -5.566314      4.649715      1.502352   5.0000  30.9738
    129    3 P    15     -5.616191      0.253603      1.779122   5.0000  30.9738
    130    3 P    15     -1.695991      2.303704      1.800026   5.0000  30.9738
    131    3 P    15     14.163719      5.266034      5.420758   5.0000  30.9738
    132    3 P    15     -2.435678      0.077308      5.374958   5.0000  30.9738
    133    3 P    15     -3.109514      4.555381     12.537895   5.0000  30.9738
    134    3 P    15     -9.850991      6.957878      8.692078   5.0000  30.9738
    135    3 P    15     -9.748076      2.813301      8.924113   5.0000  30.9738
    136    3 P    15     -6.208070      4.801060      8.870637   5.0000  30.9738
    137    3 P    15     -3.021257      0.365444     12.442796   5.0000  30.9738
    138    3 P    15     -6.677482      2.457468     12.546880   5.0000  30.9738
    139    3 P    15     -7.313041      7.099241     19.616595   5.0000  30.9738
    140    3 P    15     15.960541      2.172094     16.248765   5.0000  30.9738
    141    3 P    15     -5.472686      5.086236     16.193453   5.0000  30.9738
    142    3 P    15     -6.336155     -0.109232     16.082691   5.0000  30.9738
    143    3 P    15     -7.309970      2.650795     19.778867   5.0000  30.9738
    144    3 P    15    -11.147317      4.879676     19.715054   5.0000  30.9738
    145    4 O     8     -9.935365      4.925401     18.691220   6.0000  15.9994
    146    4 O     8    -10.178640      4.841121      5.203750   6.0000  15.9994
    147    4 O     8     -7.720330      3.549205      5.044592   6.0000  15.9994
    148    4 O     8     -7.692427      5.930991      5.129464   6.0000  15.9994
    149    4 O     8     -3.745520      4.039468      5.297231   6.0000  15.9994
    150    4 O     8     -5.563142      1.993874      5.396165   6.0000  15.9994
    151    4 O     8     -3.470678      1.312288      5.334795   6.0000  15.9994
    152    4 O     8     -7.104096      4.610061      1.619889   6.0000  15.9994
    153    4 O     8     -9.128567      6.365988      1.822301   6.0000  15.9994
    154    4 O     8     -9.671774      3.856052      1.734049   6.0000  15.9994
    155    4 O     8     -6.907653      4.872552     10.345840   6.0000  15.9994
    156    4 O     8     -7.872334      6.415503     18.346519   6.0000  15.9994
    157    4 O     8     -7.689031      3.424338     18.383239   6.0000  15.9994
    158    4 O     8    -10.581895      4.864734     21.128828   6.0000  15.9994
    159    4 O     8     -7.853612      6.176244     20.649620   6.0000  15.9994
    160    4 O     8     -7.929710      3.552937     21.011013   6.0000  15.9994
    161    4 O     8     -9.055338      3.229734     10.198611   6.0000  15.9994
    162    4 O     8     -7.198580      0.121725      1.687467   6.0000  15.9994
    163    4 O     8     -9.414825      6.044127      9.898256   6.0000  15.9994
    164    4 O     8     -7.033831      4.879714      7.470085   6.0000  15.9994
    165    4 O     8     -9.501956      3.567580      7.609902   6.0000  15.9994
    166    4 O     8     -9.320609      6.395803      7.318118   6.0000  15.9994
    167    4 O     8     -0.770768      0.998196      1.641565   6.0000  15.9994
    168    4 O     8     -4.917617      6.118620      1.645043   6.0000  15.9994
    169    4 O     8     -5.784379      7.187227      4.042372   6.0000  15.9994
    170    4 O     8     -1.500324      0.255516     12.291276   6.0000  15.9994
    171    4 O     8     -3.439252      6.071718     12.622728   6.0000  15.9994
    172    4 O     8     -7.409237      1.048011     12.692947   6.0000  15.9994
    173    4 O     8     -8.394131      6.294639     12.546157   6.0000  15.9994
    174    4 O     8    -10.293794      4.716082     12.157241   6.0000  15.9994
    175    4 O     8     -7.728025      3.497884     12.407844   6.0000  15.9994
    176    4 O     8    -11.398278      6.735484      8.701070   6.0000  15.9994
    177    4 O     8     16.520592      1.341411      8.904000   6.0000  15.9994
    178    4 O     8     -5.187435      6.077543      8.815355   6.0000  15.9994
    179    4 O     8     -7.411880      0.233894     17.239493   6.0000  15.9994
    180    4 O     8     -7.608881      1.119598      4.141855   6.0000  15.9994
    181    4 O     8    -11.956752      6.148957      4.125162   6.0000  15.9994
    182    4 O     8     -1.810316      0.257218      6.813329   6.0000  15.9994
    183    4 O     8     -7.614275      1.560830      6.606274   6.0000  15.9994
    184    4 O     8     -3.725941      5.867154      6.845301   6.0000  15.9994
    185    4 O     8     -4.726791      5.827369     17.423926   6.0000  15.9994
    186    4 O     8     -2.651139      2.744786      8.948358   6.0000  15.9994
    187    4 O     8     -0.850551      1.556322     17.496805   6.0000  15.9994
    188    4 O     8    -11.465504      7.291435     14.980868   6.0000  15.9994
    189    4 O     8     -4.996144      5.851693     14.931129   6.0000  15.9994
    190    4 O     8     -9.198229      1.324407     14.882879   6.0000  15.9994
    191    4 O     8     -5.295567      3.553090      8.897217   6.0000  15.9994
    192    4 O     8     -4.659879      0.984733      8.741825   6.0000  15.9994
    193    4 O     8     -5.924474      2.115412     11.164892   6.0000  15.9994
    194    4 O     8     -5.896661      2.428363     20.063846   6.0000  15.9994
    195    4 O     8     -3.435532      1.087231     19.891657   6.0000  15.9994
    196    4 O     8     -3.393808      3.647323     19.896011   6.0000  15.9994
    197    4 O     8     -8.001024      1.344934     19.879610   6.0000  15.9994
    198    4 O     8     -5.756601      7.329938     19.795470   6.0000  15.9994
    199    4 O     8     13.789543      6.152736     19.750367   6.0000  15.9994
    200    4 O     8     -2.778798      2.407052     16.203701   6.0000  15.9994
    201    4 O     8     -4.963417      3.639195     16.146173   6.0000  15.9994
    202    4 O     8     -5.434117      1.049038     15.616289   6.0000  15.9994
    203    4 O     8     -2.487068      2.126045      3.094270   6.0000  15.9994
    204    4 O     8     -3.999429      4.035134     11.276195   6.0000  15.9994
    205    4 O     8     -3.612276      1.198624     11.265406   6.0000  15.9994
    206    4 O     8     -5.585295      2.631222     13.506442   6.0000  15.9994
    207    4 O     8     -3.272058      3.854547     13.888125   6.0000  15.9994
    208    4 O     8     -3.426752      1.083942     13.777275   6.0000  15.9994
    209    4 O     8     -5.269832      1.268232      2.914066   6.0000  15.9994
    210    4 O     8     -7.004235      5.379162     16.254475   6.0000  15.9994
    211    4 O     8     -5.016458      3.917324      2.829254   6.0000  15.9994
    212    4 O     8     -2.751409      2.166216      0.582025   6.0000  15.9994
    213    4 O     8     -5.058921      0.814410      0.430496   6.0000  15.9994
    214    4 O     8     -5.036101      4.101099      0.214781   6.0000  15.9994
    215    4 O     8     -9.443982      6.058737     15.838014   6.0000  15.9994
    216    4 O     8     -9.452808      3.511088     16.008975   6.0000  15.9994
    217    1 Li    3      4.281441     -7.106975      0.172922   3.0000   6.9410
    218    1 Li    3      0.477156      4.155609      3.508780   3.0000   6.9410
    219    1 Li    3      7.814171     -4.933256      7.503135   3.0000   6.9410
    220    1 Li    3     -8.513648      1.115523      0.133146   3.0000   6.9410
    221    1 Li    3      4.025164     -6.375383     10.898285   3.0000   6.9410
    222    1 Li    3      8.230827      3.946610     14.148751   3.0000   6.9410
    223    2 Ti   22    -12.982924     12.399564     17.437721  12.0000  47.8670
    224    2 Ti   22    -12.946037     12.396695      6.491135  12.0000  47.8670
    225    2 Ti   22    -12.846055     12.463146     11.181677  12.0000  47.8670
    226    2 Ti   22    -13.094967     12.404721      0.370009  12.0000  47.8670
    227    2 Ti   22     12.816563      7.419380      3.221950  12.0000  47.8670
    228    2 Ti   22     12.840899      7.628063     13.941420  12.0000  47.8670
    229    2 Ti   22     12.969106      7.501482     18.512766  12.0000  47.8670
    230    2 Ti   22     12.914277      7.345376      7.852661  12.0000  47.8670
    231    2 Ti   22     -8.800673      9.763554     10.227981  12.0000  47.8670
    232    2 Ti   22     -8.562141      9.996959     20.956847  12.0000  47.8670
    233    2 Ti   22     -8.875247      9.730931      3.952446  12.0000  47.8670
    234    2 Ti   22     -8.666871      9.838506     14.835761  12.0000  47.8670
    235    3 P    15    -11.802245      9.382079      5.405927   5.0000  30.9738
    236    3 P    15     -9.974831     12.131480      1.615374   5.0000  30.9738
    237    3 P    15     -9.989057      7.665596      1.590120   5.0000  30.9738
    238    3 P    15     -6.305636      9.969126      1.630950   5.0000  30.9738
    239    3 P    15    -15.979928     12.775039      5.200361   5.0000  30.9738
    240    3 P    15     -6.802981      7.270076      5.220789   5.0000  30.9738
    241    3 P    15     -7.468622     12.068149     12.416030   5.0000  30.9738
    242    3 P    15    -14.285270     14.492770      9.042284   5.0000  30.9738
    243    3 P    15    -14.150919     10.175811      8.752719   5.0000  30.9738
    244    3 P    15    -10.459061     12.306561      8.861657   5.0000  30.9738
    245    3 P    15     -7.469444      7.600386     12.576332   5.0000  30.9738
    246    3 P    15    -11.198428      9.775847     12.519260   5.0000  30.9738
    247    3 P    15    -11.735592     14.672343     19.556190   5.0000  30.9738
    248    3 P    15     11.690508      9.658358     16.214306   5.0000  30.9738
    249    3 P    15     -9.983933     12.672752     16.083153   5.0000  30.9738
    250    3 P    15    -10.371229      7.278623     16.054814   5.0000  30.9738
    251    3 P    15    -11.882953     10.146752     19.723335   5.0000  30.9738
    252    3 P    15    -15.597951     12.479614     19.660130   5.0000  30.9738
    253    4 O     8    -14.571274     12.752292     18.457385   6.0000  15.9994
    254    4 O     8    -14.429811     12.435826      5.391089   6.0000  15.9994
    255    4 O     8    -12.261490     10.994186      5.384291   6.0000  15.9994
    256    4 O     8    -12.044865     13.672315      5.192847   6.0000  15.9994
    257    4 O     8     -8.063466     11.193093      5.355675   6.0000  15.9994
    258    4 O     8    -10.315615      9.314477      5.281207   6.0000  15.9994
    259    4 O     8     -7.845385      8.322409      4.939015   6.0000  15.9994
    260    4 O     8    -11.490880     12.388571      1.709424   6.0000  15.9994
    261    4 O     8    -13.776249     13.873820      1.658229   6.0000  15.9994
    262    4 O     8    -13.761105     11.106582      1.621426   6.0000  15.9994
    263    4 O     8    -11.338904     12.504050     10.187267   6.0000  15.9994
    264    4 O     8    -12.043483     13.633213     18.417547   6.0000  15.9994
    265    4 O     8    -12.232618     10.952323     18.354576   6.0000  15.9994
    266    4 O     8    -14.926470     12.454793     20.989031   6.0000  15.9994
    267    4 O     8    -12.039284     13.897528     20.922804   6.0000  15.9994
    268    4 O     8    -12.438316     11.248353     20.684297   6.0000  15.9994
    269    4 O     8    -13.550667     11.074583      9.881863   6.0000  15.9994
    270    4 O     8    -11.511427      7.578545      1.668629   6.0000  15.9994
    271    4 O     8    -14.102045     13.759272     10.390946   6.0000  15.9994
    272    4 O     8    -11.379877     12.301591      7.612544   6.0000  15.9994
    273    4 O     8    -13.936412     10.895108      7.349552   6.0000  15.9994
    274    4 O     8    -13.524500     13.838467      7.842662   6.0000  15.9994
    275    4 O     8     -5.364055      8.749151      1.601926   6.0000  15.9994
    276    4 O     8     -9.088817     13.482253      1.802978   6.0000  15.9994
    277    4 O     8    -10.125829     14.866868      4.052125   6.0000  15.9994
    278    4 O     8     -5.918413      7.527526     12.578104   6.0000  15.9994
    279    4 O     8     -8.121296     13.391156     12.538252   6.0000  15.9994
    280    4 O     8    -12.271638      8.730233     12.599270   6.0000  15.9994
    281    4 O     8    -12.196478     13.795783     12.536363   6.0000  15.9994
    282    4 O     8    -14.281868     11.966780     12.406471   6.0000  15.9994
    283    4 O     8    -12.023426     11.025188     12.152865   6.0000  15.9994
    284    4 O     8    -15.894135     14.399302      8.957296   6.0000  15.9994
    285    4 O     8    -13.393197      8.778971      8.811573   6.0000  15.9994
    286    4 O     8     -9.479918     13.498488      9.030148   6.0000  15.9994
    287    4 O     8    -11.085196      7.502526     17.585801   6.0000  15.9994
    288    4 O     8    -12.400674      8.815845      4.041544   6.0000  15.9994
    289    4 O     8    -16.337828     13.573067      3.846431   6.0000  15.9994
    290    4 O     8     -6.139037      7.430900      6.539545   6.0000  15.9994
    291    4 O     8    -12.196415      8.779988      6.680729   6.0000  15.9994
    292    4 O     8     -7.953449     13.257904      6.483203   6.0000  15.9994
    293    4 O     8     -9.554653     13.294068     17.511262   6.0000  15.9994
    294    4 O     8     -7.155751     10.259545      9.163647   6.0000  15.9994
    295    4 O     8     -5.483333      8.440206     17.540499   6.0000  15.9994
    296    4 O     8     -2.908804     -7.198596     15.070315   6.0000  15.9994
    297    4 O     8     -9.640117     13.473165     14.819235   6.0000  15.9994
    298    4 O     8    -13.455111      9.135159     14.735325   6.0000  15.9994
    299    4 O     8     -9.769641     10.926566      8.944294   6.0000  15.9994
    300    4 O     8     -9.265631      8.356034      8.787616   6.0000  15.9994
    301    4 O     8    -10.259264      9.584333     11.308802   6.0000  15.9994
    302    4 O     8    -10.422057      9.864537     20.095206   6.0000  15.9994
    303    4 O     8     -7.938729      8.572785     19.617557   6.0000  15.9994
    304    4 O     8     -8.021960     11.313927     19.757232   6.0000  15.9994
    305    4 O     8    -12.702556      8.866718     19.812837   6.0000  15.9994
    306    4 O     8      2.688353     -7.377237     19.709261   6.0000  15.9994
    307    4 O     8      9.278795     13.765641     19.793657   6.0000  15.9994
    308    4 O     8     -7.116894      9.729643     16.196289   6.0000  15.9994
    309    4 O     8     -9.513007     11.172761     15.979738   6.0000  15.9994
    310    4 O     8     -9.435804      8.538515     16.185787   6.0000  15.9994
    311    4 O     8     -7.357586      9.868844      2.728347   6.0000  15.9994
    312    4 O     8     -8.181071     11.222105     11.337839   6.0000  15.9994
    313    4 O     8     -7.857561      8.286497     11.198238   6.0000  15.9994
    314    4 O     8    -10.501242      9.764853     13.973449   6.0000  15.9994
    315    4 O     8     -7.785607     11.184440     13.721184   6.0000  15.9994
    316    4 O     8     -7.913612      8.344911     13.888500   6.0000  15.9994
    317    4 O     8     -9.740728      8.573389      2.878707   6.0000  15.9994
    318    4 O     8    -11.572801     12.631133     16.077446   6.0000  15.9994
    319    4 O     8     -9.771571     11.378495      3.005396   6.0000  15.9994
    320    4 O     8     -6.944773     10.144152      0.226231   6.0000  15.9994
    321    4 O     8     -9.345321      8.192262      0.320571   6.0000  15.9994
    322    4 O     8     -9.516089     11.482956      0.306390   6.0000  15.9994
    323    4 O     8    -13.900712     13.751074     15.894200   6.0000  15.9994
    324    4 O     8    -13.975942     11.081959     16.202895   6.0000  15.9994
    325    1 Li    3     -8.715197      9.499283      7.031836   3.0000   6.9410
    326    1 Li    3     -0.423600      8.416918      6.859160   3.0000   6.9410
    327    1 Li    3    -11.883899     12.167349      3.790711   3.0000   6.9410
    328    1 Li    3     13.648538      2.149120     18.344829   3.0000   6.9410
    329    1 Li    3     -9.513111      4.787164     14.206918   3.0000   6.9410
    330    1 Li    3     13.504350     -2.281989     14.056036   3.0000   6.9410
    331    2 Ti   22      4.316510     -2.474057     17.506070  12.0000  47.8670
    332    2 Ti   22      4.304471     -2.632864      6.841395  12.0000  47.8670
    333    2 Ti   22      4.262086     -2.533404     11.321030  12.0000  47.8670
    334    2 Ti   22      4.521194     -2.647311      0.466167  12.0000  47.8670
    335    2 Ti   22     -8.545132     14.895789      3.025702  12.0000  47.8670
    336    2 Ti   22     -8.661993     14.788638     13.888690  12.0000  47.8670
    337    2 Ti   22     -8.692960     14.869981     18.259526  12.0000  47.8670
    338    2 Ti   22     -8.602083     14.484910      7.590753  12.0000  47.8670
    339    2 Ti   22      8.681807     -4.990537     10.228671  12.0000  47.8670
    340    2 Ti   22      8.675072     -4.893917     20.972256  12.0000  47.8670
[...]
 flops   876 x   448 x   953         807846359040       0.0%    100.0%      0.0%     
 flops   862 x   448 x   980         817457356800       0.0%    100.0%      0.0%     
 flops   876 x   448 x   980         830733926400       0.0%    100.0%      0.0%     
 flops   224 x   448 x   953        1051990016000       0.0%    100.0%      0.0%     
 flops   224 x   448 x   980        1081794560000       0.0%    100.0%      0.0%     
 flops    26 x    26 x   224        1144561926144       0.0%    100.0%      0.0%     
 flops   862 x   448 x   960        1201161830400       0.0%    100.0%      0.0%     
 flops   876 x   448 x   960        1220670259200       0.0%    100.0%      0.0%     
 flops   192 x   448 x   953        1442729164800       0.0%    100.0%      0.0%     
 flops   192 x   448 x   980        1483603968000       0.0%    100.0%      0.0%     
 flops   882 x   448 x   224        1571945840640       0.0%    100.0%      0.0%     
 flops   224 x   448 x   960        1589575680000       0.0%    100.0%      0.0%     
 flops   882 x   448 x   953        1626759106560       0.0%    100.0%      0.0%     
 flops   921 x   448 x   224        1641453649920       0.0%    100.0%      0.0%     
 flops   882 x   448 x   980        1672847769600       0.0%    100.0%      0.0%     
 flops   921 x   448 x   953        1698690631680       0.0%    100.0%      0.0%     
 flops   921 x   448 x   980        1746817228800       0.0%    100.0%      0.0%     
 flops   192 x   448 x   960        2179989504000       0.0%    100.0%      0.0%     
 flops     6 x    32 x    13        2270952972288       0.0%    100.0%      0.0%     
 flops    13 x    32 x     6        2270952972288       0.0%    100.0%      0.0%     
 flops   882 x   448 x   960        2458062028800       0.0%    100.0%      0.0%     
 flops   921 x   448 x   960        2566751846400       0.0%    100.0%      0.0%     
 flops    13 x    26 x   224        3327248031744       0.0%    100.0%      0.0%     
 flops    26 x    13 x   224        3334269259776       0.0%    100.0%      0.0%     
 flops    26 x    32 x    26        5413385502720       0.0%    100.0%      0.0%     
 flops    13 x    13 x   224        6586166286336       0.0%    100.0%      0.0%     
 flops    26 x    32 x    13       15906071900160       0.0%    100.0%      0.0%     
 flops    13 x    32 x    26       15906071900160       0.0%    100.0%      0.0%     
 flops    13 x    32 x    13       31353901203456       0.0%    100.0%      0.0%     
 flops inhomo. stacks             133194556196352     100.0%      0.0%      0.0%
 flops total                       278.515990E+12      47.8%     52.2%      0.0%
 flops max/rank                     20.503375E+12      48.0%     52.0%      0.0%
 matmuls inhomo. stacks                    280182     100.0%      0.0%      0.0%
 matmuls total                         5821402150       0.0%    100.0%      0.0%
 number of processed stacks               8392804       3.3%     96.7%      0.0%
 average stack size                                     1.0     717.5       0.0
 marketing flops                   372.604586E+12
 -------------------------------------------------------------------------------
 # multiplications                            501
 max memory usage/rank               7.065477E+09
 # max total images/rank                        7
 # max 3D layers                                1
 # MPI messages exchanged                  133266
 MPI messages size (bytes):
  total size                         2.190330E+12
  min size                         638.976000E+03
  max size                          54.975888E+06
  average size                      16.435773E+06
 MPI breakdown and total messages size (bytes):
             size <=      128                   0                        0
       128 < size <=     8192                   0                        0
      8192 < size <=    32768                   0                        0
     32768 < size <=   131072                   0                        0
    131072 < size <=  4194304               55146             156245928480
   4194304 < size <= 16777216               40320             484434846720
  16777216 < size                           37800            1549663634880
 -------------------------------------------------------------------------------

 *** WARNING in dbcsr_mm.F:301 :: Using a non-square number of MPI ranks ***
 *** might lead to poor performance. Used ranks: 14 Suggested: 16 25     ***

 -------------------------------------------------------------------------------
 -                                                                             -
 -                      DBCSR MESSAGE PASSING PERFORMANCE                      -
 -                                                                             -
 -------------------------------------------------------------------------------
 ROUTINE             CALLS      AVE VOLUME [Bytes]
 MP_Bcast              226                     12.
 MP_Allreduce         3550                    448.
 MP_Alltoall          4901                5823760.
 MP_ISend            24854                7081514.
 MP_IRecv            24420                7201702.
 -------------------------------------------------------------------------------

 -------------------------------------------------------------------------------
 -                                                                             -
 -                                DBM STATISTICS                               -
 -                                                                             -
 -------------------------------------------------------------------------------
    M  x    N  x    K                                          COUNT     PERCENT
 -------------------------------------------------------------------------------

 -------------------------------------------------------------------------------
 -                                                                             -
 -                                GRID STATISTICS                              -
 -                                                                             -
 -------------------------------------------------------------------------------
 LP    KERNEL             BACKEND                              COUNT     PERCENT
 4     collocate general  CPU                               34837715      25.53%
 4     integrate general  CPU                               34204302      25.07%
 5     collocate general  CPU                               17157580      12.57%
 5     integrate general  CPU                               16862770      12.36%
 3     collocate general  CPU                               13020645       9.54%
 3     integrate general  CPU                               12797514       9.38%
 6     integrate general  CPU                                2437239       1.79%
 6     collocate general  CPU                                2241250       1.64%
 2     collocate general  CPU                                 943030       0.69%
 2     integrate general  CPU                                 925884       0.68%
 7     integrate general  CPU                                 633413       0.46%
 8     integrate general  CPU                                 311956       0.23%
 9     integrate general  CPU                                  40750       0.03%
 0     collocate general  CPU                                  27216       0.02%
 0     integrate general  CPU                                  13608       0.01%
 -------------------------------------------------------------------------------

 MEMORY| Estimated peak process memory [MiB]                                6715

 -------------------------------------------------------------------------------
 ----                             MULTIGRID INFO                            ----
 -------------------------------------------------------------------------------
 count for grid        1:         595432          cutoff [a.u.]          300.00
 count for grid        2:         436429          cutoff [a.u.]          100.00
 count for grid        3:         500342          cutoff [a.u.]           33.33
 count for grid        4:         430108          cutoff [a.u.]           11.11
 total gridlevel count  :        1962311

 -------------------------------------------------------------------------------
 -                                                                             -
 -                         MESSAGE PASSING PERFORMANCE                         -
 -                                                                             -
 -------------------------------------------------------------------------------

 ROUTINE             CALLS      AVE VOLUME [Bytes]
 MP_Group                4
 MP_Bcast              126                3809212.
 MP_Allreduce         1458                   1943.
 MP_Sync                 7
 MP_Alltoall          1061              137444649.
 MP_SendRecv          1482                 645998.
 MP_ISendRecv         1430                 668160.
 MP_Wait              4896
 MP_ISend             2684                5861110.
 MP_IRecv             2684                5861110.
 -------------------------------------------------------------------------------


 -------------------------------------------------------------------------------
 -                                                                             -
 -                           R E F E R E N C E S                               -
 -                                                                             -
 -------------------------------------------------------------------------------
 
 CP2K version 2025.1, the CP2K developers group (2025).
 CP2K is freely available from https://www.cp2k.org/ .
 
 T. D. Kuehne, M. Iannuzzi, M. Del Ben, V. V. Rybkin, P. Seewald, F. Stein, T. 
 Laino, R. Z. Khaliullin, O. Schuett, F. Schiffmann, D. Golze, J. Wilhelm, S. 
 Chulkov, M. H. Bani-Hashemian, V. Weber, U. Borstnik, M. Taillefumier, A. S. 
 Jakobovits, A. Lazzaro, H. Pabst, T. Mueller, R. Schade, M. Guidon, S. 
 Andermatt, N. Holmberg, G. K. Schenter, A. Hehn, A. Bussy, F. Belleflamme, G. 
 Tabacchi, A. Gloess, M. Lass, I. Bethune, C. J. Mundy, C. Plessl, M. Watkins, 
 J. VandeVondele, M. Krack, J. Hutter.
 J. Chem. Phys. 152, 194103 (2020).
 CP2K: An electronic structure and molecular dynamics software package - 
 Quickstep: Efficient and accurate electronic structure calculations.
 https://doi.org/10.1063/5.0007045

 L. Goerigk, A. Hansen, C. Bauer, S. Ehrlich, A. Najibi, S. Grimme.
 Phys. Chem. Chem. Phys. 19, 32184-32215 (2017).
 A look at the density functional theory zoo with the advanced GMTKN55 database 
 for general main group thermochemistry, kinetics and noncovalent interactions.
 https://doi.org/10.1039/C7CP04913G

 O. Schuett, P. Messmer, J. Hutter, J. VandeVondele.
 Electronic Structure Calculations on Graphics Processing Units, 173-190 (2016).
 GPU-Accelerated Sparse Matrix-Matrix Multiplication for Linear Scaling Density 
 Functional Theory.
 https://doi.org/10.1002/9781118670712.ch8

 A. Heinecke, G. Henry, M. Hutchinson, H. Pabst.
 Proceedings of Intl. Supercomputing Conference, 981-991 (2016).
 LIBXSMM: Accelerating Small Matrix Multiplications by Runtime Code Generation.
 https://doi.org/10.1109/SC.2016.83

 J. Hutter, M. Iannuzzi, F. Schiffmann, J. VandeVondele.
 WIREs Comput Mol Sci. 4, 15-25 (2014).
 CP2K: atomistic simulations of condensed matter systems.
 https://doi.org/10.1002/wcms.1159

 U. Borstnik, J. VandeVondele, V. Weber, J. Hutter.
 Parallel Comput. 40, 47-58 (2014).
 Sparse matrix multiplication: The distributed block-compressed sparse row 
 library.
 https://doi.org/10.1016/j.parco.2014.03.012

 A. Marek, V. Blum, R. Johanni, V. Havu, B. Lang, T. Auckenthaler, A. Heinecke, 
 H. Bungartz, H. Lederer.
 J. Phys. Condens. Matter 26, 213201 (2014).
 The ELPA library: scalable parallel eigenvalue solutions for electronic 
 structure theory and computational science.
 https://doi.org/10.1088/0953-8984/26/21/213201

 S. Grimme, S. Ehrlich, L. Goerigk.
 J. Comput. Chem. 32, 1456 (2011).
 Effect of the damping function in dispersion corrected density functional 
 theory.
 https://doi.org/10.1002/jcc.21759

 S. Grimme, J. Antony, S. Ehrlich, H. Krieg.
 J. Chem. Phys. 132, 154104 (2010).
 A consistent and accurate ab initio parametrization of density functional 
 dispersion correction (DFT-D) for the 94 elements H-Pu.
 https://doi.org/10.1063/1.3382344

 V. Weber, J. VandeVondele, J. Hutter, A. M. N. Niklasson.
 J. Chem. Phys. 128, 084113 (2008).
 Direct energy functional minimization under orthogonality constraints.
 https://doi.org/10.1063/1.2841077

 J. VandeVondele, J. Hutter.
 J. Chem. Phys. 127, 114105 (2007).
 Gaussian basis sets for accurate calculations on molecular systems in gas and 
 condensed phases.
 https://doi.org/10.1063/1.2770708

 J. VandeVondele, M. Krack, F. Mohamed, M. Parrinello, T. Chassaing, J. Hutter.
 Comput. Phys. Commun. 167, 103-128 (2005).
 QUICKSTEP: Fast and accurate density functional calculations using a mixed 
 Gaussian and plane waves approach.
 https://doi.org/10.1016/j.cpc.2004.12.014

 M. Krack.
 Theor. Chem. Acc. 114, 145-152 (2005).
 Pseudopotentials for H to Kr optimized for gradient-corrected 
 exchange-correlation functionals.
 https://doi.org/10.1007/s00214-005-0655-y

 M. Frigo, S. G. Johnson.
 Proc. IEEE 93, 216-231 (2005).
 The design and implementation of FFTW3.
 https://doi.org/10.1109/JPROC.2004.840301

 J. VandeVondele, J. Hutter.
 J. Chem. Phys. 118, 4365-4369 (2003).
 An efficient orbital transformation method for electronic structure 
 calculations.
 https://doi.org/10.1063/1.1543154

 C. Hartwigsen, S. Goedecker, J. Hutter.
 Phys. Rev. B 58, 3641-3662 (1998).
 Relativistic separable dual-space Gaussian pseudopotentials from H to Rn.
 https://doi.org/10.1103/PhysRevB.58.3641

 G. Lippert, J. Hutter, M. Parrinello.
 Mol. Phys. 92, 477-487 (1997).
 A hybrid Gaussian and plane wave density functional scheme.
 https://doi.org/10.1080/002689797170220

 S. Goedecker, M. Teter, J. Hutter.
 Phys. Rev. B 54, 1703-1710 (1996).
 Separable dual-space Gaussian pseudopotentials.
 https://doi.org/10.1103/PhysRevB.54.1703

 J. P. Perdew, K. Burke, M. Ernzerhof.
 Phys. Rev. Lett. 77, 3865-3868 (1996).
 Generalized gradient approximation made simple.
 https://doi.org/10.1103/PhysRevLett.77.3865


 -------------------------------------------------------------------------------
 -                                                                             -
 -                                T I M I N G                                  -
 -                                                                             -
 -------------------------------------------------------------------------------
 SUBROUTINE                       CALLS  ASD         SELF TIME        TOTAL TIME
                                MAXIMUM       AVERAGE  MAXIMUM  AVERAGE  MAXIMUM
 CP2K                                 1  1.0    0.059    0.068  523.009  523.011
 qs_forces                            1  2.0    0.000    0.001  521.864  521.866
 qs_energies                          1  3.0    0.001    0.001  511.448  511.454
 scf_env_do_scf                       1  4.0    0.000    0.000  501.165  501.171
 scf_env_do_scf_inner_loop           54  5.0    0.002    0.005  446.442  446.449
 rebuild_ks_matrix                   55  6.9    0.000    0.000  196.885  197.132
 qs_ks_build_kohn_sham_matrix        55  7.9    0.007    0.008  196.884  197.132
 qs_ks_update_qs_env                 55  6.0    0.001    0.001  190.030  190.271
 qs_rho_update_rho_low               55  6.0    0.000    0.000  134.281  134.399
 calculate_rho_elec                  55  7.0    0.193    0.206  134.280  134.398
 sum_up_and_integrate                55  8.9    0.001    0.001  132.879  132.911
 integrate_v_rspace                  55  9.9    0.002    0.002  132.465  132.489
 qs_scf_new_mos                      54  6.0    0.000    0.001  128.121  128.505
 qs_scf_loop_do_ot                   54  7.0    0.000    0.000  128.121  128.504
 grid_integrate_task_list            55 10.9  120.463  123.022  120.463  123.022
 grid_collocate_task_list            55  8.0  118.660  121.763  118.660  121.763
 ot_scf_mini                         54  8.0    0.001    0.002  119.089  119.389
 dbcsr_multiply_generic             501 10.7    0.055    0.060  103.383  103.824
 multiply_cannon                    501 11.7    0.083    0.091   79.226   80.407
 multiply_cannon_loop               501 12.7    0.107    0.167   72.505   74.571
 multiply_cannon_multrec           7014 13.7   66.989   68.244   67.000   68.256
 qs_ot_get_orbitals_ref              54  9.0    0.001    0.001   63.457   63.476
 ot_mini                             54  9.0    0.000    0.000   55.463   55.796
 init_scf_loop                        1  5.0    0.000    0.001   54.677   54.684
 prepare_preconditioner               1  6.0    0.000    0.000   50.704   50.711
 make_preconditioner                  1  7.0    0.000    0.000   49.212   49.218
 make_full_all                        1  8.0    0.003    0.004   47.624   47.627
 ot_diis_step                        54 10.0    0.003    0.004   44.075   44.077
 apply_preconditioner_dbcsr          54 11.0    0.000    0.000   40.840   40.952
 apply_all                           54 12.0    0.284    0.303   40.840   40.952
 qs_vxc_create                       55  8.9    0.001    0.001   39.508   39.596
 xc_vxc_pw_create                    55  9.9    1.976    2.082   39.507   39.595
 qs_ot_ref_chol                      45 10.0    0.000    0.000   39.357   39.378
 cp_dbcsr_cholesky_restore           90 11.0   28.587   28.735   36.817   36.836
 fft_wrap_pw1pw2                    936 11.3    0.007    0.008   31.493   31.974
 fft_wrap_pw1pw2_300                606 12.7    1.995    2.116   29.747   30.200
 cp_fm_diag_elpa                      3  9.3    0.000    0.000   24.552   24.557
 cp_fm_diag_elpa_base                 3 10.3   24.402   24.403   24.548   24.548
 xc_rho_set_and_dset_create          55 10.9    0.601    0.635   22.693   23.193
 fft3d_ps                           936 13.3    8.977    9.267   20.542   21.285
 make_m2s                          1002 11.7    0.032    0.034   19.673   20.517
 xc_pw_derive                       330 11.9    0.002    0.002   19.822   20.236
 density_rs2pw                       55  8.0    0.002    0.003   14.510   18.679
 mp_waitall_1                     28264 14.9   14.279   18.128   14.279   18.128
 make_images                       1002 12.7    1.251    1.341   14.852   15.646
 xc_pw_divergence                    55 10.9    0.001    0.001   14.042   14.398
 transfer_rs2pw                     222  9.0    0.002    0.002    7.632   11.840
 xc_functional_eval                  55 11.9    0.000    0.001   11.248   11.773
 pbe_lda_eval                        55 12.9   11.247   11.773   11.247   11.773
 mp_waitany                        2684 12.4    7.462   11.619    7.462   11.619
 qs_ot_get_derivative_ref            54 10.0    0.001    0.001   11.289   11.511
 hybrid_alltoall_any               1240 14.6    1.657    3.853   10.386   11.494
 make_images_data                  1002 13.7    0.015    0.017   10.453   11.180
 -------------------------------------------------------------------------------

 The number of warnings for this run is : 1
 
 -------------------------------------------------------------------------------
  **** **** ******  **  PROGRAM ENDED AT                 2026-04-05 15:46:24.839
 ***** ** ***  *** **   PROGRAM RAN ON            c513-133.stampede3.tacc.utexas
 **    ****   ******    PROGRAM RAN BY                                      jq15
 ***** **    ** ** **   PROGRAM PROCESS ID                                122496
  **** **  *******  **  PROGRAM STOPPED IN /scratch/10664/jq15/260403_DPA3_refin
                                           e/step2_cp2k/test
